8
Step: 0
C 0.000000 0.000000 0.000000
C 1.540000 0.000000 0.000000
H 0.687335 0.818734 0.554521
H -0.657535 -0.490994 0.624863
H -0.591423 0.739011 -0.738540
H 2.074037 -0.160464 0.953168
H 0.683493 -0.896537 -0.238302
H 0.814267 0.865259 0.352628
8
Step: 100, Energy: 32.8225 kcal/mol
C 0.004225 0.025394 -0.005040
C 1.516385 -0.006019 0.005950
H 0.563226 0.671188 0.454242
H -0.696002 -0.519790 0.661418
H -0.492722 0.616140 -0.615461
H 2.037515 -0.149594 0.888369
H 0.885515 -0.684643 -0.181828
H 0.941236 0.713333 0.290834
8
Step: 200, Energy: 30.2779 kcal/mol
C -0.006627 0.021127 -0.003407
C 1.528519 -0.006205 0.007264
H 0.590678 0.695268 0.478912
H -0.678897 -0.504729 0.644931
H -0.518949 0.639069 -0.645549
H 2.035448 -0.147772 0.880478
H 0.861889 -0.718352 -0.195194
H 0.926104 0.742937 0.299672
8
Step: 300, Energy: 17.5969 kcal/mol
C -0.018312 0.005566 -0.001265
C 1.553665 -0.001388 0.001336
H 0.681148 0.791110 0.556634
H -0.672143 -0.497183 0.639003
H -0.602259 0.726625 -0.744245
H 2.086248 -0.160285 0.961682
H 0.717129 -0.885242 -0.246605
H 0.843270 0.861094 0.342711
8
Step: 400, Energy: 29.8970 kcal/mol
C -0.012643 0.032887 -0.007541
C 1.527343 -0.007770 0.007807
H 0.549807 0.637289 0.457510
H -0.716471 -0.528639 0.682849
H -0.507387 0.594158 -0.616323
H 2.054115 -0.148441 0.894849
H 0.932120 -0.671934 -0.191216
H 0.983125 0.708680 0.278791
8
Step: 500, Energy: 25.1155 kcal/mol
C -0.016743 0.019452 -0.003769
C 1.536819 -0.007730 0.011814
H 0.630927 0.710670 0.534483
H -0.665530 -0.484373 0.633228
H -0.577677 0.647382 -0.691104
H 2.045238 -0.142128 0.864742
H 0.858062 -0.784861 -0.235867
H 0.932388 0.810414 0.309760
8
Step: 600, Energy: 17.8790 kcal/mol
C -0.008950 0.014528 -0.005839
C 1.536732 -0.003960 0.005889
H 0.683327 0.752939 0.586668
H -0.693001 -0.499993 0.660488
H -0.631636 0.683370 -0.746948
H 2.110059 -0.155198 0.957971
H 0.770827 -0.909695 -0.283218
H 0.888551 0.901059 0.337093
8
Step: 700, Energy: 25.1658 kcal/mol
C 0.000702 0.038028 -0.011003
C 1.506849 -0.010310 0.013693
H 0.572064 0.619580 0.501072
H -0.714262 -0.510874 0.682125
H -0.537649 0.556774 -0.624380
H 2.064255 -0.139668 0.869815
H 0.962710 -0.708303 -0.226735
H 1.015752 0.756746 0.278309
8
Step: 800, Energy: 20.7142 kcal/mol
C -0.009284 0.022239 -0.006690
C 1.519772 -0.010083 0.019505
H 0.675165 0.704816 0.607000
H -0.644347 -0.452026 0.615435
H -0.634334 0.614536 -0.719567
H 2.057051 -0.132260 0.837969
H 0.890894 -0.846697 -0.288702
H 0.973748 0.877187 0.310272
8
Step: 900, Energy: 16.1782 kcal/mol
C -0.009031 0.028693 -0.011639
C 1.521975 -0.007925 0.012659
H 0.670453 0.684265 0.615046
H -0.711442 -0.495597 0.682983
H -0.665637 0.613008 -0.741422
H 2.145919 -0.146771 0.952633
H 0.868746 -0.913908 -0.323092
H 0.973876 0.925045 0.319026
8
Step: 1000, Energy: 32.2410 kcal/mol
C -0.019436 0.048641 -0.013734
C 1.513805 -0.013983 0.021970
H 0.563376 0.560987 0.530419
H -0.701727 -0.480754 0.673899
H -0.578561 0.502122 -0.630251
H 2.085758 -0.128595 0.844388
H 1.034502 -0.724771 -0.263115
H 1.089728 0.780165 0.264217
8
Step: 1100, Energy: 21.6943 kcal/mol
C -0.035645 0.036247 -0.009610
C 1.531604 -0.014025 0.027964
H 0.665727 0.623639 0.640740
H -0.642617 -0.428551 0.616409
H -0.689939 0.553667 -0.738689
H 2.092070 -0.123072 0.830229
H 0.975899 -0.867654 -0.336947
H 1.059772 0.907034 0.292021
8
Step: 1200, Energy: 18.6826 kcal/mol
C -0.028231 0.047542 -0.016810
C 1.523935 -0.013135 0.020770
H 0.642128 0.583267 0.632425
H -0.729445 -0.488665 0.708976
H -0.704707 0.532942 -0.741485
H 2.190885 -0.135957 0.949492
H 0.980364 -0.906759 -0.365008
H 1.073466 0.941706 0.294032
8
Step: 1300, Energy: 47.1118 kcal/mol
C -0.030975 0.061270 -0.016360
C 1.508375 -0.017415 0.032417
H 0.554817 0.488482 0.564931
H -0.672454 -0.438377 0.652423
H -0.612353 0.430366 -0.627153
H 2.100698 -0.114305 0.806587
H 1.112616 -0.742779 -0.306374
H 1.172817 0.802107 0.245700
8
Step: 1400, Energy: 30.4560 kcal/mol
C -0.029964 0.052993 -0.013984
C 1.505562 -0.017677 0.038213
H 0.653106 0.531226 0.680830
H -0.627874 -0.397565 0.609180
H -0.726932 0.460800 -0.730723
H 2.123895 -0.110244 0.807549
H 1.078189 -0.883268 -0.389905
H 1.159342 0.936622 0.268694
8
Step: 1500, Energy: 31.0584 kcal/mol
C -0.018383 0.066275 -0.022344
C 1.490194 -0.017470 0.032395
H 0.622032 0.485606 0.662262
H -0.718163 -0.459753 0.706635
H -0.721797 0.426500 -0.714559
H 2.226435 -0.119155 0.911966
H 1.097287 -0.902903 -0.412187
H 1.181831 0.957036 0.264893
8
Step: 1600, Energy: 70.5111 kcal/mol
C -0.033428 0.076325 -0.018847
C 1.490369 -0.020737 0.044984
H 0.543979 0.405564 0.594932
H -0.634026 -0.390553 0.621940
H -0.631911 0.344103 -0.613595
H 2.112797 -0.098182 0.757890
H 1.194574 -0.753936 -0.351028
H 1.259018 0.814155 0.221378
8
Step: 1700, Energy: 45.1583 kcal/mol
C -0.041473 0.075566 -0.018365
C 1.496578 -0.023354 0.049022
H 0.625121 0.418862 0.696741
H -0.628105 -0.383270 0.622451
H -0.762238 0.362208 -0.731444
H 2.170593 -0.097798 0.798228
H 1.180991 -0.877617 -0.436761
H 1.257333 0.952732 0.237596
8
Step: 1800, Energy: 49.1855 kcal/mol
C -0.043786 0.089990 -0.026676
C 1.493206 -0.023734 0.045512
H 0.584765 0.372739 0.666350
H -0.707807 -0.442645 0.714923
H -0.745423 0.326527 -0.705707
H 2.267772 -0.102989 0.885630
H 1.205202 -0.887674 -0.456226
H 1.284459 0.956951 0.228797
8
Step: 1900, Energy: 94.9891 kcal/mol
C -0.061660 0.096483 -0.020426
C 1.499498 -0.026151 0.057929
H 0.508724 0.306838 0.596399
H -0.609369 -0.359481 0.608567
H -0.659985 0.263724 -0.613928
H 2.139695 -0.084993 0.728160
H 1.279249 -0.753520 -0.393278
H 1.343528 0.820134 0.192498
8
Step: 2000, Energy: 62.7762 kcal/mol
C -0.056116 0.100729 -0.022155
C 1.489743 -0.029532 0.060539
H 0.587785 0.300550 0.694324
H -0.632122 -0.377823 0.642038
H -0.782223 0.261361 -0.727655
H 2.223867 -0.085868 0.791000
H 1.278464 -0.864960 -0.482250
H 1.349443 0.966807 0.201951
8
Step: 2100, Energy: 72.8496 kcal/mol
C -0.048851 0.111700 -0.029023
C 1.473354 -0.027420 0.060249
H 0.555892 0.263055 0.666470
H -0.675890 -0.413812 0.699415
H -0.733700 0.225321 -0.677590
H 2.287949 -0.086321 0.839088
H 1.298205 -0.875350 -0.503745
H 1.373541 0.951093 0.189468
8
Step: 2200, Energy: 121.7389 kcal/mol
C -0.055989 0.114450 -0.020695
C 1.472623 -0.029296 0.070612
H 0.486610 0.213531 0.595704
H -0.572092 -0.326624 0.585629
H -0.650974 0.179942 -0.595379
H 2.147061 -0.071837 0.689402
H 1.348093 -0.749665 -0.435986
H 1.410887 0.830033 0.161640
8
Step: 2300, Energy: 80.0547 kcal/mol
C -0.047792 0.124002 -0.025360
C 1.457655 -0.033473 0.072951
H 0.562527 0.192643 0.689951
H -0.621941 -0.370895 0.652188
H -0.766096 0.159331 -0.703798
H 2.258957 -0.072915 0.770617
H 1.357999 -0.854254 -0.529849
H 1.427503 0.978747 0.163418
8
Step: 2400, Energy: 93.2243 kcal/mol
C -0.055058 0.133088 -0.029445
C 1.455406 -0.031102 0.076243
H 0.526732 0.162656 0.652010
H -0.635577 -0.382955 0.674657
H -0.709944 0.133380 -0.651149
H 2.296032 -0.071066 0.790591
H 1.375295 -0.865159 -0.552767
H 1.446514 0.943451 0.149989
8
Step: 2500, Energy: 134.4350 kcal/mol
C -0.072696 0.136492 -0.020446
C 1.470794 -0.036207 0.083491
H 0.456165 0.128398 0.571059
H -0.555102 -0.313124 0.584795
H -0.654041 0.104506 -0.601562
H 2.172533 -0.061417 0.673538
H 1.405867 -0.739451 -0.474013
H 1.466285 0.846500 0.130399
8
Step: 2600, Energy: 76.8183 kcal/mol
C -0.072276 0.151549 -0.027251
C 1.461968 -0.040994 0.086365
H 0.543328 0.093658 0.667422
H -0.621680 -0.380128 0.679014
H -0.768178 0.069478 -0.720328
H 2.304350 -0.060971 0.771194
H 1.415551 -0.840148 -0.574529
H 1.484058 0.986046 0.124525
8
Step: 2700, Energy: 85.1478 kcal/mol
C -0.079301 0.155956 -0.027370
C 1.459888 -0.037342 0.091769
H 0.520882 0.072658 0.639989
H -0.598914 -0.359293 0.656697
H -0.719271 0.055943 -0.676458
H 2.302553 -0.057707 0.762614
H 1.427732 -0.848667 -0.596415
H 1.496051 0.937120 0.112794
8
Step: 2800, Energy: 113.1162 kcal/mol
C -0.080419 0.156731 -0.019748
C 1.460906 -0.042402 0.094969
H 0.460855 0.055312 0.568845
H -0.544031 -0.307481 0.593043
H -0.667818 0.041155 -0.632171
H 2.191166 -0.051602 0.666037
H 1.445553 -0.724101 -0.506733
H 1.507597 0.864992 0.099424
8
Step: 2900, Energy: 60.6534 kcal/mol
C -0.067807 0.171568 -0.027591
C 1.436254 -0.043385 0.099043
H 0.562349 0.009547 0.673777
H -0.609121 -0.375539 0.687780
H -0.756670 0.001093 -0.733605
H 2.316649 -0.048866 0.755119
H 1.458504 -0.829153 -0.619420
H 1.527641 0.983819 0.087977
8
Step: 3000, Energy: 75.6430 kcal/mol
C -0.070979 0.171070 -0.023323
C 1.431415 -0.039366 0.105219
H 0.535166 -0.000679 0.635769
H -0.556196 -0.324017 0.626020
H -0.700481 -0.001636 -0.685828
H 2.279247 -0.045155 0.724776
H 1.465437 -0.829923 -0.634412
H 1.531192 0.931163 0.079305
8
Step: 3100, Energy: 94.9147 kcal/mol
C -0.074156 0.173983 -0.019045
C 1.437194 -0.046875 0.105162
H 0.480475 -0.003968 0.565459
H -0.536507 -0.306913 0.609431
H -0.658030 -0.009177 -0.654737
H 2.196229 -0.040651 0.661057
H 1.466930 -0.706449 -0.534619
H 1.534821 0.880171 0.069939
8
Step: 3200, Energy: 48.7610 kcal/mol
C -0.076356 0.191525 -0.026354
C 1.426601 -0.047750 0.111827
H 0.579397 -0.054632 0.657934
H -0.596105 -0.370865 0.699209
H -0.741040 -0.053801 -0.759085
H 2.322211 -0.035136 0.750576
H 1.479019 -0.815720 -0.660076
H 1.553152 0.974463 0.055811
8
Step: 3300, Energy: 67.3915 kcal/mol
C -0.091237 0.189598 -0.019120
C 1.436095 -0.047285 0.118160
H 0.534452 -0.050088 0.601970
H -0.531153 -0.300147 0.614935
H -0.693065 -0.048902 -0.717621
H 2.272423 -0.032255 0.715247
H 1.481997 -0.802480 -0.659833
H 1.553739 0.928035 0.050100
8
Step: 3400, Energy: 78.3403 kcal/mol
C -0.094583 0.194884 -0.019303
C 1.442946 -0.055648 0.115728
H 0.489838 -0.045881 0.543410
H -0.545237 -0.318303 0.645874
H -0.658323 -0.050182 -0.694054
H 2.217530 -0.028655 0.677236
H 1.477525 -0.687337 -0.556397
H 1.554719 0.890404 0.043540
8
Step: 3500, Energy: 41.0869 kcal/mol
C -0.092115 0.209620 -0.023456
C 1.426605 -0.053155 0.124071
H 0.592348 -0.100382 0.627456
H -0.581489 -0.360241 0.707965
H -0.724593 -0.093440 -0.790321
H 2.320073 -0.020299 0.753339
H 1.485756 -0.801364 -0.695916
H 1.568216 0.961938 0.029171
8
Step: 3600, Energy: 62.0761 kcal/mol
C -0.093119 0.202614 -0.014443
C 1.423356 -0.052543 0.128214
H 0.547137 -0.087504 0.572305
H -0.509581 -0.276560 0.608446
H -0.668928 -0.077693 -0.737531
H 2.250259 -0.018432 0.708264
H 1.481798 -0.772269 -0.676447
H 1.566626 0.927724 0.025218
8
Step: 3700, Energy: 66.5001 kcal/mol
C -0.083581 0.207738 -0.018618
C 1.417410 -0.058008 0.123945
H 0.523555 -0.084663 0.536049
H -0.550128 -0.321757 0.676745
H -0.634292 -0.072205 -0.711897
H 2.206828 -0.014831 0.682125
H 1.471966 -0.671520 -0.578367
H 1.565072 0.893578 0.021305
8
Step: 3800, Energy: 38.0966 kcal/mol
C -0.081879 0.219385 -0.018773
C 1.401461 -0.053863 0.134077
H 0.617170 -0.136476 0.607235
H -0.561376 -0.333437 0.701034
H -0.693092 -0.112864 -0.803419
H 2.289845 -0.004857 0.745504
H 1.481207 -0.787989 -0.727856
H 1.576918 0.948142 0.008147
8
Step: 3900, Energy: 57.9251 kcal/mol
C -0.091207 0.213773 -0.010972
C 1.408112 -0.057725 0.136658
H 0.563111 -0.113150 0.547328
H -0.496888 -0.258510 0.612207
H -0.642196 -0.093441 -0.752789
H 2.225685 -0.003275 0.707387
H 1.472854 -0.741688 -0.684299
H 1.575491 0.927771 0.004871
8
Step: 4000, Energy: 56.7572 kcal/mol
C -0.093881 0.223829 -0.018488
C 1.415609 -0.064369 0.133031
H 0.543903 -0.107185 0.516052
H -0.557554 -0.329374 0.715424
H -0.621608 -0.091603 -0.744323
H 2.204097 0.001948 0.700056
H 1.459192 -0.658085 -0.597868
H 1.570768 0.890379 0.004015
8
Step: 4100, Energy: 35.4857 kcal/mol
C -0.103037 0.234148 -0.014340
C 1.411440 -0.062050 0.144749
H 0.621168 -0.150190 0.566744
H -0.544941 -0.311221 0.700867
H -0.676776 -0.133204 -0.838439
H 2.275597 0.014354 0.759141
H 1.460590 -0.769976 -0.750576
H 1.579856 0.937925 -0.008146
8
Step: 4200, Energy: 52.9426 kcal/mol
C -0.108971 0.228624 -0.009360
C 1.415704 -0.067526 0.144859
H 0.569338 -0.124791 0.514563
H -0.498546 -0.252642 0.633035
H -0.625199 -0.106236 -0.778253
H 2.215688 0.014820 0.724432
H 1.450681 -0.709748 -0.683971
H 1.579319 0.928517 -0.011159
8
Step: 4300, Energy: 50.3408 kcal/mol
C -0.099562 0.237126 -0.017469
C 1.411004 -0.069176 0.141365
H 0.563369 -0.123539 0.497883
H -0.562427 -0.330519 0.746382
H -0.609661 -0.102792 -0.771676
H 2.190239 0.019337 0.715330
H 1.439740 -0.647922 -0.616630
H 1.572612 0.882305 -0.008213
8
Step: 4400, Energy: 35.6799 kcal/mol
C -0.097400 0.241263 -0.009042
C 1.394609 -0.064734 0.152469
H 0.637180 -0.164735 0.543678
H -0.522921 -0.281557 0.689122
H -0.652267 -0.137199 -0.850514
H 2.240553 0.032118 0.761859
H 1.437118 -0.753211 -0.766930
H 1.582027 0.930915 -0.020118
8
Step: 4500, Energy: 50.1441 kcal/mol
C -0.095465 0.236147 -0.007756
C 1.391730 -0.069987 0.150035
H 0.595446 -0.142160 0.502950
H -0.496637 -0.248422 0.653255
H -0.596752 -0.104591 -0.780124
H 2.181963 0.032092 0.729537
H 1.423976 -0.683129 -0.681998
H 1.581009 0.925812 -0.022339
8
Step: 4600, Energy: 47.1926 kcal/mol
C -0.089460 0.245626 -0.014931
C 1.391863 -0.070266 0.148273
H 0.587836 -0.138616 0.487874
H -0.559143 -0.323170 0.763154
H -0.592918 -0.107198 -0.788709
H 2.157638 0.036860 0.722907
H 1.411312 -0.640874 -0.635712
H 1.570501 0.871150 -0.015750
8
Step: 4700, Energy: 36.1559 kcal/mol
C -0.100629 0.250068 -0.004952
C 1.388842 -0.070581 0.159508
H 0.644929 -0.171291 0.521509
H -0.504916 -0.256229 0.679260
H -0.632969 -0.139408 -0.863290
H 2.210803 0.052028 0.773926
H 1.404240 -0.733846 -0.773816
H 1.581266 0.928446 -0.028657
8
Step: 4800, Energy: 47.9568 kcal/mol
C -0.108759 0.250150 -0.008395
C 1.397870 -0.078781 0.156363
H 0.598805 -0.145709 0.482563
H -0.502169 -0.255478 0.684819
H -0.584889 -0.107203 -0.795931
H 2.164511 0.051906 0.750025
H 1.393976 -0.658663 -0.674561
H 1.579526 0.919784 -0.028887
8
Step: 4900, Energy: 46.6906 kcal/mol
C -0.106985 0.259824 -0.013004
C 1.402824 -0.078103 0.156499
H 0.583826 -0.137872 0.465526
H -0.549550 -0.318174 0.776381
H -0.592403 -0.117146 -0.820306
H 2.139134 0.055782 0.743160
H 1.381448 -0.633780 -0.648148
H 1.568042 0.860199 -0.019424
8
Step: 5000, Energy: 37.3512 kcal/mol
C -0.113201 0.261160 -0.002380
C 1.394152 -0.079285 0.165766
H 0.643387 -0.172610 0.500695
H -0.488401 -0.239254 0.674239
H -0.619331 -0.141242 -0.875376
H 2.187011 0.072537 0.794082
H 1.366237 -0.712507 -0.770459
H 1.579381 0.929749 -0.034124
8
Step: 5100, Energy: 47.4700 kcal/mol
C -0.106439 0.260301 -0.008442
C 1.389843 -0.083012 0.160957
H 0.607792 -0.152787 0.472719
H -0.504544 -0.263476 0.711873
H -0.570835 -0.105419 -0.800700
H 2.132903 0.069338 0.763617
H 1.358173 -0.639311 -0.667910
H 1.574142 0.909847 -0.031031
8
Step: 5200, Energy: 48.1249 kcal/mol
C -0.094121 0.265679 -0.009027
C 1.383661 -0.078280 0.161766
H 0.595424 -0.147017 0.461180
H -0.531755 -0.303325 0.770086
H -0.583397 -0.117427 -0.829063
H 2.098750 0.070305 0.749780
H 1.346035 -0.629870 -0.660083
H 1.562085 0.852411 -0.020432
8
Step: 5300, Energy: 39.0743 kcal/mol
C -0.099638 0.266160 -0.000043
C 1.372917 -0.081167 0.169079
H 0.656970 -0.185121 0.500358
H -0.468379 -0.225331 0.666397
H -0.600440 -0.132707 -0.864186
H 2.148595 0.088408 0.804584
H 1.329309 -0.696047 -0.764129
H 1.576351 0.932822 -0.036699
8
Step: 5400, Energy: 48.9230 kcal/mol
C -0.099130 0.269411 -0.008252
C 1.378031 -0.085200 0.164946
H 0.610947 -0.158993 0.468366
H -0.499212 -0.273226 0.733552
H -0.561091 -0.103224 -0.802415
H 2.094946 0.083430 0.773874
H 1.322711 -0.626408 -0.662054
H 1.567153 0.895818 -0.029194
8
Step: 5500, Energy: 51.5367 kcal/mol
C -0.100877 0.276403 -0.006160
C 1.385800 -0.084252 0.167452
H 0.587032 -0.146741 0.451656
H -0.508682 -0.291212 0.759829
H -0.582523 -0.122850 -0.844914
H 2.069253 0.085374 0.767985
H 1.307875 -0.623779 -0.662345
H 1.555417 0.849039 -0.019566
8
Step: 5600, Energy: 41.8067 kcal/mol
C -0.115765 0.279617 -0.000470
C 1.385110 -0.091508 0.173424
H 0.646284 -0.185474 0.490893
H -0.455365 -0.223413 0.669319
H -0.593095 -0.132667 -0.866835
H 2.124310 0.106648 0.832001
H 1.286858 -0.676326 -0.746320
H 1.568334 0.936143 -0.036605
8
Step: 5700, Energy: 52.8759 kcal/mol
C -0.111827 0.283598 -0.008605
C 1.389306 -0.092520 0.169875
H 0.590409 -0.153767 0.455706
H -0.490008 -0.285517 0.751899
H -0.563372 -0.108059 -0.816172
H 2.064640 0.096809 0.793021
H 1.285327 -0.614682 -0.650925
H 1.555967 0.880102 -0.024495
8
Step: 5800, Energy: 56.2264 kcal/mol
C -0.104927 0.286162 -0.003563
C 1.385537 -0.089580 0.171753
H 0.576457 -0.148948 0.448904
H -0.479418 -0.279334 0.743454
H -0.582370 -0.125644 -0.852500
H 2.039713 0.096760 0.786899
H 1.270279 -0.618168 -0.657480
H 1.548059 0.851314 -0.017705
8
Step: 5900, Energy: 44.7593 kcal/mol
C -0.107047 0.287048 -0.000437
C 1.372160 -0.093781 0.175288
H 0.647041 -0.197681 0.498424
H -0.436673 -0.225207 0.670849
H -0.581214 -0.125719 -0.852547
H 2.086708 0.116753 0.847739
H 1.246610 -0.664348 -0.730524
H 1.559812 0.937579 -0.033966
8
Step: 6000, Energy: 57.1195 kcal/mol
C -0.094422 0.289491 -0.006634
C 1.370170 -0.090566 0.172111
H 0.584088 -0.160290 0.459248
H -0.471667 -0.291184 0.755746
H -0.558423 -0.106911 -0.813397
H 2.018086 0.102497 0.799098
H 1.245375 -0.610543 -0.645017
H 1.542912 0.865702 -0.018235
8
Step: 6100, Energy: 60.5045 kcal/mol
C -0.093317 0.291848 -0.000934
C 1.369586 -0.090700 0.173756
H 0.576737 -0.160589 0.458903
H -0.448152 -0.266807 0.722358
H -0.576162 -0.122761 -0.844879
H 2.003221 0.104242 0.803203
H 1.229932 -0.614453 -0.649791
H 1.537758 0.859548 -0.015493
8
Step: 6200, Energy: 49.0457 kcal/mol
C -0.106005 0.297257 -0.001305
C 1.369156 -0.097781 0.177284
H 0.635656 -0.205317 0.504355
H -0.416995 -0.232716 0.675445
H -0.575176 -0.122238 -0.843131
H 2.049470 0.124007 0.866752
H 1.205958 -0.654874 -0.711398
H 1.547383 0.935413 -0.029058
8
Step: 6300, Energy: 64.5298 kcal/mol
C -0.103576 0.302493 -0.005746
C 1.379299 -0.096395 0.175673
H 0.551246 -0.152710 0.451824
H -0.445393 -0.297943 0.755737
H -0.564992 -0.113755 -0.825023
H 1.984783 0.107523 0.817301
H 1.208696 -0.605104 -0.629387
H 1.529783 0.852751 -0.011024
8
Step: 6400, Energy: 67.3741 kcal/mol
C -0.109008 0.305402 -0.000790
C 1.382505 -0.100002 0.176810
H 0.555325 -0.162129 0.461276
H -0.416060 -0.260727 0.706468
H -0.577641 -0.125842 -0.847526
H 1.979801 0.111429 0.832153
H 1.193260 -0.607288 -0.629471
H 1.527441 0.869537 -0.012473
8
Step: 6500, Energy: 55.4026 kcal/mol
C -0.113956 0.310169 -0.002439
C 1.377493 -0.103741 0.179556
H 0.610306 -0.206909 0.506194
H -0.395859 -0.242764 0.680536
H -0.574566 -0.123316 -0.841446
H 2.012829 0.127984 0.887246
H 1.165189 -0.646646 -0.688237
H 1.531823 0.929006 -0.022315
8
Step: 6600, Energy: 71.8704 kcal/mol
C -0.098465 0.310887 -0.003705
C 1.374032 -0.097835 0.177248
H 0.525869 -0.152179 0.453197
H -0.414316 -0.299172 0.746824
H -0.567001 -0.116545 -0.827035
H 1.947191 0.108491 0.831993
H 1.170257 -0.602108 -0.613142
H 1.514982 0.845514 -0.004259
8
Step: 6700, Energy: 71.9067 kcal/mol
C -0.095708 0.310941 0.000089
C 1.365551 -0.099765 0.177118
H 0.552395 -0.180380 0.481920
H -0.381280 -0.255389 0.690023
H -0.569982 -0.119448 -0.831294
H 1.945670 0.111941 0.850083
H 1.155409 -0.607035 -0.615155
H 1.516309 0.882221 -0.009262
8
Step: 6800, Energy: 60.6777 kcal/mol
C -0.096924 0.315995 -0.001825
C 1.360126 -0.100779 0.179918
H 0.592609 -0.218009 0.520109
H -0.367416 -0.250942 0.680733
H -0.569900 -0.119551 -0.830201
H 1.968948 0.124081 0.895965
H 1.126328 -0.647931 -0.673385
H 1.517841 0.920876 -0.014711
8
Step: 6900, Energy: 79.1162 kcal/mol
C -0.090127 0.318104 -0.001722
C 1.364799 -0.098309 0.177874
H 0.501586 -0.154347 0.459221
H -0.378897 -0.297873 0.733784
H -0.567158 -0.117206 -0.824470
H 1.912714 0.106774 0.848004
H 1.135063 -0.601137 -0.595074
H 1.501535 0.843734 0.001851
8
Step: 7000, Energy: 78.6120 kcal/mol
C -0.101882 0.322505 -0.000701
C 1.369954 -0.105428 0.178605
H 0.534565 -0.189749 0.494821
H -0.348188 -0.253915 0.678408
H -0.567703 -0.117887 -0.824479
H 1.916623 0.112203 0.873989
H 1.120030 -0.604815 -0.594389
H 1.503313 0.891666 -0.004938
8
Step: 7100, Energy: 70.1640 kcal/mol
C -0.109087 0.330090 -0.002048
C 1.374661 -0.107213 0.182041
H 0.550449 -0.210740 0.516847
H -0.337122 -0.258337 0.679583
H -0.575764 -0.125609 -0.837737
H 1.933285 0.122007 0.914448
H 1.089192 -0.643263 -0.647297
H 1.501636 0.909117 -0.006165
8
Step: 7200, Energy: 88.9119 kcal/mol
C -0.101880 0.330825 -0.001182
C 1.376135 -0.105399 0.179263
H 0.464448 -0.148760 0.459071
H -0.339966 -0.296113 0.719948
H -0.571206 -0.121038 -0.828513
H 1.887066 0.105987 0.872297
H 1.104245 -0.595854 -0.567574
H 1.489537 0.844484 0.007780
8
Step: 7300, Energy: 85.3184 kcal/mol
C -0.104196 0.332971 -0.001407
C 1.370939 -0.108905 0.179836
H 0.513423 -0.200978 0.510858
H -0.312745 -0.253824 0.668283
H -0.565575 -0.115405 -0.817361
H 1.886952 0.109070 0.892569
H 1.086817 -0.606690 -0.576450
H 1.491632 0.897579 0.000417
8
Step: 7400, Energy: 77.4344 kcal/mol
C -0.096821 0.336397 -0.000409
C 1.363552 -0.105172 0.181956
H 0.518108 -0.213558 0.524734
H -0.303159 -0.261519 0.673451
H -0.576325 -0.125657 -0.835201
H 1.895920 0.115855 0.924478
H 1.053913 -0.645747 -0.628621
H 1.487702 0.900223 0.002018
8
Step: 7500, Energy: 94.5602 kcal/mol
C -0.085570 0.334990 0.000206
C 1.358038 -0.103097 0.178166
H 0.448004 -0.160416 0.475761
H -0.302240 -0.293357 0.706187
H -0.565202 -0.114966 -0.815206
H 1.856109 0.102227 0.887891
H 1.071428 -0.597327 -0.549618
H 1.477677 0.851494 0.012831
8
Step: 7600, Energy: 90.4280 kcal/mol
C -0.092282 0.339249 -0.001158
C 1.358116 -0.107165 0.180111
H 0.496404 -0.216866 0.531904
H -0.277054 -0.253783 0.658774
H -0.560837 -0.110620 -0.806651
H 1.853055 0.103790 0.903514
H 1.051471 -0.613245 -0.565368
H 1.480056 0.900963 0.006526
8
Step: 7700, Energy: 86.2648 kcal/mol
C -0.094557 0.345368 0.000997
C 1.362582 -0.106784 0.182128
H 0.477840 -0.209040 0.526700
H -0.266515 -0.262250 0.664528
H -0.579767 -0.128413 -0.837970
H 1.864639 0.111310 0.939314
H 1.022848 -0.645446 -0.605372
H 1.475673 0.892134 0.010228
8
Step: 7800, Energy: 103.0975 kcal/mol
C -0.096573 0.347383 -0.000371
C 1.367878 -0.109780 0.179130
H 0.416072 -0.160123 0.482269
H -0.262620 -0.290962 0.692850
H -0.565560 -0.113868 -0.812054
H 1.833470 0.100193 0.910209
H 1.046221 -0.595119 -0.524736
H 1.467989 0.855654 0.018739
8
Step: 7900, Energy: 99.1074 kcal/mol
C -0.105788 0.352984 -0.001528
C 1.372444 -0.113788 0.182349
H 0.460335 -0.215653 0.537048
H -0.241178 -0.251431 0.647132
H -0.565813 -0.113872 -0.811481
H 1.826853 0.100339 0.919807
H 1.022063 -0.615811 -0.547353
H 1.468664 0.897898 0.014046
8
Step: 8000, Energy: 95.7263 kcal/mol
C -0.100201 0.356163 0.002127
C 1.369577 -0.111373 0.182317
H 0.435004 -0.200262 0.524860
H -0.230446 -0.260215 0.652982
H -0.584086 -0.131923 -0.842464
H 1.838716 0.108955 0.958235
H 0.995070 -0.642007 -0.578388
H 1.464340 0.885738 0.018345
8
Step: 8100, Energy: 109.1723 kcal/mol
C -0.091954 0.354810 -0.000411
C 1.361944 -0.110669 0.179027
H 0.393713 -0.169422 0.498170
H -0.224498 -0.289379 0.680645
H -0.560603 -0.107868 -0.800594
H 1.807200 0.097110 0.924374
H 1.018125 -0.597609 -0.508012
H 1.458973 0.860684 0.024832
8
Step: 8200, Energy: 104.6162 kcal/mol
C -0.090086 0.357449 0.000145
C 1.356966 -0.110129 0.182180
H 0.433901 -0.225610 0.553980
H -0.204551 -0.248988 0.634895
H -0.565379 -0.111642 -0.806747
H 1.797276 0.095260 0.926351
H 0.990399 -0.625374 -0.539524
H 1.459763 0.896844 0.021486
8
Step: 8300, Energy: 102.0962 kcal/mol
C -0.083839 0.359960 0.003834
C 1.352991 -0.108273 0.180580
H 0.404976 -0.203889 0.535885
H -0.194403 -0.259964 0.642642
H -0.582302 -0.127483 -0.833748
H 1.813081 0.105361 0.970991
H 0.969188 -0.644479 -0.559574
H 1.455671 0.884603 0.025780
8
Step: 8400, Energy: 114.7591 kcal/mol
C -0.086448 0.361955 -0.000454
C 1.355389 -0.110889 0.179272
H 0.371992 -0.178183 0.514050
H -0.187993 -0.287879 0.668147
H -0.556440 -0.101452 -0.788784
H 1.781704 0.093436 0.933968
H 0.991653 -0.602639 -0.495332
H 1.450742 0.863685 0.031477
8
Step: 8500, Energy: 112.5136 kcal/mol
C -0.095302 0.368156 0.001433
C 1.363432 -0.114253 0.183281
H 0.397064 -0.220247 0.556593
H -0.170276 -0.242801 0.618638
H -0.571626 -0.116207 -0.812982
H 1.774670 0.093486 0.940580
H 0.963683 -0.628853 -0.524701
H 1.450844 0.892661 0.029516
8
Step: 8600, Energy: 110.5785 kcal/mol
C -0.096863 0.372740 0.003836
C 1.366540 -0.115746 0.180956
H 0.365272 -0.193722 0.534488
H -0.159652 -0.257080 0.628742
H -0.585105 -0.128813 -0.833849
H 1.793303 0.106041 0.992745
H 0.948381 -0.640002 -0.533649
H 1.447503 0.880099 0.033796
8
Step: 8700, Energy: 121.9584 kcal/mol
C -0.097662 0.373999 -0.000746
C 1.366536 -0.116755 0.181066
H 0.340318 -0.175906 0.520608
H -0.151100 -0.282800 0.650511
H -0.558226 -0.100044 -0.785468
H 1.760089 0.091572 0.945828
H 0.968888 -0.606119 -0.481140
H 1.443704 0.861854 0.038945
8
Step: 8800, Energy: 119.6120 kcal/mol
C -0.093996 0.376392 0.003312
C 1.363018 -0.116173 0.183437
H 0.361993 -0.215849 0.561278
H -0.136800 -0.236619 0.601061
H -0.577878 -0.119195 -0.816405
H 1.755566 0.092315 0.954664
H 0.939998 -0.633231 -0.511336
H 1.443676 0.890376 0.037224
8
Step: 8900, Energy: 116.1743 kcal/mol
C -0.084996 0.377446 0.004468
C 1.354214 -0.113844 0.179626
H 0.339721 -0.197962 0.547421
H -0.127534 -0.258942 0.618245
H -0.581074 -0.121773 -0.819931
H 1.771635 0.103990 1.003189
H 0.926240 -0.642004 -0.517459
H 1.440486 0.879349 0.041129
8
Step: 9000, Energy: 127.3921 kcal/mol
C -0.081537 0.377208 0.000697
C 1.350286 -0.112787 0.180843
H 0.320135 -0.184173 0.537591
H -0.118713 -0.280545 0.634903
H -0.554625 -0.094270 -0.773685
H 1.734542 0.087788 0.946352
H 0.942252 -0.614397 -0.475379
H 1.437045 0.863533 0.045715
8
Step: 9100, Energy: 125.6454 kcal/mol
C -0.082078 0.381224 0.005491
C 1.351636 -0.114624 0.182375
H 0.333333 -0.215467 0.570707
H -0.106083 -0.233510 0.585396
H -0.581059 -0.119532 -0.814144
H 1.736204 0.091883 0.966781
H 0.917171 -0.637461 -0.499767
H 1.437492 0.890749 0.044278
8
Step: 9200, Energy: 122.3089 kcal/mol
C -0.086043 0.386178 0.004309
C 1.355151 -0.116430 0.179708
H 0.311277 -0.195544 0.555261
H -0.096336 -0.259166 0.604363
H -0.579488 -0.116519 -0.808569
H 1.751963 0.103120 1.014295
H 0.907208 -0.642922 -0.501504
H 1.434380 0.875136 0.048608
8
Step: 9300, Energy: 134.4906 kcal/mol
C -0.092416 0.388764 0.001634
C 1.361825 -0.118889 0.182731
H 0.288619 -0.174622 0.538918
H -0.087395 -0.271178 0.610961
H -0.560492 -0.096105 -0.774473
H 1.717518 0.086620 0.956236
H 0.922731 -0.618254 -0.464314
H 1.431287 0.860869 0.052742
8
Step: 9400, Energy: 131.8723 kcal/mol
C -0.094093 0.393599 0.006408
C 1.364470 -0.121928 0.183002
H 0.299828 -0.203312 0.569763
H -0.078708 -0.227030 0.565566
H -0.588508 -0.124326 -0.818333
H 1.724196 0.094107 0.987955
H 0.900211 -0.636969 -0.483499
H 1.431253 0.887612 0.051379
8
Step: 9500, Energy: 128.1960 kcal/mol
C -0.091256 0.395821 0.004196
C 1.360677 -0.120243 0.180473
H 0.283891 -0.190172 0.561041
H -0.068382 -0.257310 0.587311
H -0.577855 -0.112027 -0.797865
H 1.733129 0.102647 1.023341
H 0.888513 -0.644022 -0.487919
H 1.428263 0.868934 0.055839
8
Step: 9600, Energy: 140.8800 kcal/mol
C -0.084723 0.394009 0.003800
C 1.354685 -0.118429 0.182857
H 0.264323 -0.171644 0.547350
H -0.059284 -0.265325 0.589387
H -0.563180 -0.095303 -0.770308
H 1.698985 0.085249 0.960922
H 0.902115 -0.623232 -0.456772
H 1.426247 0.862740 0.058689
8
Step: 9700, Energy: 136.4220 kcal/mol
C -0.077962 0.396722 0.007920
C 1.348301 -0.118523 0.181474
H 0.277766 -0.205930 0.584241
H -0.052064 -0.230260 0.553103
H -0.589212 -0.120451 -0.808975
H 1.708669 0.093671 0.997090
H 0.881724 -0.640533 -0.473997
H 1.426550 0.888689 0.057407
8
Step: 9800, Energy: 133.7867 kcal/mol
C -0.077081 0.398837 0.005057
C 1.346461 -0.116620 0.180140
H 0.263214 -0.191958 0.574826
H -0.042422 -0.259167 0.572624
H -0.573067 -0.102983 -0.780461
H 1.713508 0.099219 1.021581
H 0.869378 -0.648973 -0.480457
H 1.423105 0.865755 0.062082
8
Step: 9900, Energy: 146.6269 kcal/mol
C -0.079846 0.400226 0.005895
C 1.350293 -0.119434 0.183004
H 0.241482 -0.165567 0.553539
H -0.034816 -0.259498 0.567769
H -0.567186 -0.095969 -0.768187
H 1.684323 0.084754 0.968125
H 0.884952 -0.626325 -0.448381
H 1.421438 0.865662 0.063958
8
Step: 10000, Energy: 140.4320 kcal/mol
C -0.085239 0.407483 0.008142
C 1.356009 -0.123819 0.182045
H 0.253207 -0.197622 0.588712
H -0.029249 -0.228585 0.536124
H -0.592398 -0.120465 -0.805228
H 1.696742 0.095788 1.012400
H 0.866628 -0.640582 -0.462418
H 1.421252 0.883766 0.063566
8
Step: 10000, Energy: 140.4320 kcal/mol
C -0.085239 0.407483 0.008142
C 1.356009 -0.123819 0.182045
H 0.253207 -0.197622 0.588712
H -0.029249 -0.228585 0.536124
H -0.592398 -0.120465 -0.805228
H 1.696742 0.095788 1.012400
H 0.866628 -0.640582 -0.462418
H 1.421252 0.883766 0.063566
